  &FCI NORB=4,
  NELEC= 2,
  MS2=0,
  ORBSYM=1,1,1,1,
  ISYM=1,
  &END
  0.65413901831964316                1           1           1           1
   4.2908375017629299E-002           2           1           2           1
  0.34286863946224422                2           2           1           1
  0.29579604433675011                2           2           2           2
 -0.13865895938988629                3           1           1           1
  -2.4407889954972971E-002           3           1           2           2
   5.6967997125954843E-002           3           1           3           1
  -3.6845898149030387E-002           3           1           3           3
   2.2596528375680290E-002           3           2           2           1
   3.9896841878069723E-002           3           2           3           2
  0.36693853510642932                3           3           1           1
  0.27246727807264981                3           3           2           2
  -3.6845898149030387E-002           3           3           3           1
  0.28296702697116610                3           3           3           3
  -5.8359259050781827E-002           4           1           2           1
  -8.5689706404390702E-003           4           1           3           2
   9.8707200906093556E-002           4           1           4           1
  -3.7838133392229058E-002           4           1           4           3
 -0.13366510557390751                4           2           1           1
  -4.3745602651001921E-002           4           2           2           2
   3.8195298893162123E-002           4           2           3           1
  -4.5984110968619152E-002           4           2           3           3
   5.2242948115416063E-002           4           2           4           2
  -9.9171823377270929E-002           4           2           4           4
   2.7221740070289220E-002           4           3           2           1
   1.6740260784094178E-002           4           3           3           2
  -3.7838133392229058E-002           4           3           4           1
   2.4119780558058738E-002           4           3           4           3
  0.49865598631358887                4           4           1           1
  0.32188997114781492                4           4           2           2
  -8.1608291757736789E-002           4           4           3           1
  0.31431853175728058                4           4           3           3
  -9.9171823377270929E-002           4           4           4           2
  0.42664458343803852                4           4           4           4
  -1.2453913959084351                1           1           0           0
 -0.47745562462465868                2           2           0           0
  0.13865900604264339                3           1           0           0
 -0.36774233730133910                3           3           0           0
  0.20897091437963661                4           2           0           0
 -0.25454819905769649                4           4           0           0
  0.70426868943687226                0           0           0           0
