  &FCI NORB=2,
  NELEC=2,
  MS2=0,
  ORBSYM=1,1,
  ISYM=1,
  &END
  0.65413901831964316                1           1           1           1
   4.2908375017629299E-002           2           1           2           1
  0.34286863946224422                2           2           1           1
  0.29579604433675011                2           2           2           2
  -1.2453913959084351                1           1           0           0
 -0.47745562462465868                2           2           0           0
  0.70426868943687226                0           0           0           0
