&FCI NORB=12,
NELEC=2,
MS2=0,
ORBSYM=1,1,1,1,1,1,1,1,1,1,1,1,
ISYM=1,
&END
  0.65413901831964316                1           1           1           1
   4.2908375017629299E-002           2           1           2           1
  0.34286863946224422                2           2           1           1
  0.29579604433675011                2           2           2           2
 -0.13865895938988629                3           1           1           1
  -2.4407889954972971E-002           3           1           2           2
   5.6967997125954843E-002           3           1           3           1
  -3.6845898149030387E-002           3           1           3           3
   2.2596528375680290E-002           3           2           2           1
   3.9896841878069723E-002           3           2           3           2
  0.36693853510642932                3           3           1           1
  0.27246727807264981                3           3           2           2
  -3.6845898149030387E-002           3           3           3           1
  0.28296702697116610                3           3           3           3
  -5.8359259050781827E-002           4           1           2           1
  -8.5689706404390702E-003           4           1           3           2
   9.8707200906093556E-002           4           1           4           1
  -3.7838133392229058E-002           4           1           4           3
 -0.13366510557390751                4           2           1           1
  -4.3745602651001921E-002           4           2           2           2
   3.8195298893162123E-002           4           2           3           1
  -4.5984110968619152E-002           4           2           3           3
   5.2242948115416063E-002           4           2           4           2
  -9.9171823377270929E-002           4           2           4           4
   2.7221740070289220E-002           4           3           2           1
   1.6740260784094178E-002           4           3           3           2
  -3.7838133392229058E-002           4           3           4           1
   2.4119780558058738E-002           4           3           4           3
  0.49865598631358887                4           4           1           1
  0.32188997114781492                4           4           2           2
  -8.1608291757736789E-002           4           4           3           1
  0.31431853175728058                4           4           3           3
  -9.9171823377270929E-002           4           4           4           2
  0.42664458343803852                4           4           4           4
  0.12172278741779290                5           1           5           1
  -3.9304054661413297E-002           5           1           5           3
   1.0178594580830700E-002           5           2           5           2
  -1.9845954282776360E-002           5           2           5           4
  -3.9304054661413297E-002           5           3           5           1
   1.5702845844907769E-002           5           3           5           3
  -1.9845954282776360E-002           5           4           5           2
   4.0926723476131723E-002           5           4           5           4
  0.65885865909547803                5           5           1           1
  0.34270656866828408                5           5           2           2
 -0.13557136341090870                5           5           3           1
  0.36746963722961018                5           5           3           3
 -0.13521570445095621                5           5           4           2
  0.50102218915169761                5           5           4           4
  0.72476589724457852                5           5           5           5
  0.12172278741779299                6           1           6           1
  -3.9304054661413297E-002           6           1           6           3
   1.0178594580830700E-002           6           2           6           2
  -1.9845954282776360E-002           6           2           6           4
  -3.9304054661413297E-002           6           3           6           1
   1.5702845844907769E-002           6           3           6           3
  -1.9845954282776360E-002           6           4           6           2
   4.0926723476131723E-002           6           4           6           4
   3.7135446616914737E-002           6           5           6           5
  0.65885865909547803                6           6           1           1
  0.34270656866828408                6           6           2           2
 -0.13557136341090861                6           6           3           1
  0.36746963722961012                6           6           3           3
 -0.13521570445095621                6           6           4           2
  0.50102218915169683                6           6           4           4
  0.65049500401074911                6           6           5           5
  0.72476589724457841                6           6           6           6
  -9.9076785965918485E-002           7           1           1           1
   7.0597578927549436E-003           7           1           2           2
   5.2377091588672153E-002           7           1           3           1
  -2.6933720224314631E-002           7           1           3           3
   7.2006612573727270E-003           7           1           4           2
  -2.2742632526915021E-002           7           1           4           4
  -8.8107592878185759E-002           7           1           5           5
  -8.8107592878185759E-002           7           1           6           6
   9.8209973873676623E-002           7           1           7           1
  -4.8951264378682198E-002           7           1           7           3
  -8.6382480851593169E-002           7           1           7           7
   2.7581445190101792E-002           7           2           2           1
   1.0117568047723860E-002           7           2           3           2
  -3.7100178561194748E-002           7           2           4           1
   1.0482317914435430E-002           7           2           4           3
   2.9491865594852850E-002           7           2           7           2
  -4.1750646292693601E-002           7           2           7           4
  0.10481384063100810                7           3           1           1
   2.2118621688980239E-002           7           3           2           2
  -4.0060117497258789E-002           7           3           3           1
   3.2769926895550340E-002           7           3           3           3
  -2.4573474163794240E-002           7           3           4           2
   5.4912413962268862E-002           7           3           4           4
  0.10041025366540481                7           3           5           5
  0.10041025366540481                7           3           6           6
  -4.8951264378682198E-002           7           3           7           1
   3.5627404689824393E-002           7           3           7           3
  0.10337745972700160                7           3           7           7
  -4.3291384254556253E-002           7           4           2           1
  -2.6561887734016382E-002           7           4           3           2
   5.1719285285582700E-002           7           4           4           1
  -2.1239924901763501E-002           7           4           4           3
  -4.1750646292693601E-002           7           4           7           2
   6.7920924164658489E-002           7           4           7           4
  -1.1661361114072550E-002           7           5           5           1
   1.0541414510864461E-002           7           5           5           3
   2.9740708924509071E-002           7           5           7           5
  -1.1661361114072550E-002           7           6           6           1
   1.0541414510864461E-002           7           6           6           3
   2.9740708924509071E-002           7           6           7           6
  0.63227580687158369                7           7           1           1
  0.35230577004070412                7           7           2           2
 -0.13233675383136159                7           7           3           1
  0.35909849010837419                7           7           3           3
 -0.13457410642504050                7           7           4           2
  0.49574410979950012                7           7           4           4
  0.62090823079137802                7           7           5           5
  0.62090823079137802                7           7           6           6
  -8.6382480851593169E-002           7           7           7           1
  0.10337745972700160                7           7           7           3
  0.65547325316977434                7           7           7           7
   1.8858033221352329E-002           8           1           5           2
  -3.8913752599332517E-002           8           1           5           4
   1.4018647858697501E-002           8           1           6           2
  -2.8927629310401489E-002           8           1           6           4
   5.7570653591519728E-002           8           1           8           1
  -1.5353105368134201E-002           8           1           8           3
   2.6499854627830409E-002           8           1           8           7
   3.5251050833590647E-002           8           2           5           1
  -9.0581641924984795E-003           8           2           5           3
   2.6204857234296171E-002           8           2           6           1
  -6.7336403839356974E-003           8           2           6           3
   6.9469227378591552E-003           8           2           7           5
   5.1641898399753944E-003           8           2           7           6
   2.3016881108092049E-002           8           2           8           2
  -4.2059722120500111E-002           8           2           8           4
  -4.2331012943708233E-003           8           3           5           2
   1.0377922487192590E-002           8           3           5           4
  -3.1467945622658949E-003           8           3           6           2
   7.7147197242225544E-003           8           3           6           4
  -1.5353105368134201E-002           8           3           8           1
   6.4048970860726053E-003           8           3           8           3
  -2.8679898599321910E-003           8           3           8           7
  -7.0938884398048588E-002           8           4           5           1
   2.0447370820189770E-002           8           4           5           3
  -5.2734409160924062E-002           8           4           6           1
   1.5200126534928800E-002           8           4           6           3
  -8.7293488031261642E-003           8           4           7           5
  -6.4892062427914510E-003           8           4           7           6
  -4.2059722120500111E-002           8           4           8           2
   8.0798829731946492E-002           8           4           8           4
   5.5035218157929028E-002           8           5           2           1
   1.3093134972926900E-002           8           5           3           2
  -9.0322649258390106E-002           8           5           4           1
   3.5183972718170350E-002           8           5           4           3
   3.4658643235005407E-002           8           5           7           2
  -5.1538460436652639E-002           8           5           7           4
  0.11207600812653121                8           5           8           5
   6.7778192027304618E-002           8           5           8           6
   4.0911972851391268E-002           8           6           2           1
   9.7331490721966722E-003           8           6           3           2
  -6.7143874377330978E-002           8           6           4           1
   2.6154992836028131E-002           8           6           4           3
   2.5764474432128839E-002           8           6           7           2
  -3.8312559934552667E-002           8           6           7           4
   6.7778192027304618E-002           8           6           8           5
   7.1284887910339448E-002           8           6           8           6
   1.0884993027292480E-002           8           7           5           2
  -1.8551898513145090E-002           8           7           5           4
   8.0916648307319192E-003           8           7           6           2
  -1.3791074037965060E-002           8           7           6           4
   2.6499854627830409E-002           8           7           8           1
  -2.8679898599321910E-003           8           7           8           3
   2.9656229507450959E-002           8           7           8           7
  0.61156169890678402                8           8           1           1
  0.35022382161482118                8           8           2           2
 -0.11261578970550300                8           8           3           1
  0.35389323493522701                8           8           3           3
 -0.13676822225196830                8           8           4           2
  0.50035735339253529                8           8           4           4
  0.64071841915786221                8           8           5           5
   2.8308669527543202E-002           8           8           6           5
  0.62368134119341501                8           8           6           6
  -3.7089943519802722E-002           8           8           7           1
   7.6514354525968345E-002           8           8           7           3
  0.59011411145066994                8           8           7           7
  0.65426484221931525                8           8           8           8
  -1.4018647858697501E-002           9           1           5           2
   2.8927629310401489E-002           9           1           5           4
   1.8858033221352329E-002           9           1           6           2
  -3.8913752599332517E-002           9           1           6           4
   5.7570653591519742E-002           9           1           9           1
  -1.5353105368134190E-002           9           1           9           3
   2.6499854627830409E-002           9           1           9           7
  -2.6204857234296171E-002           9           2           5           1
   6.7336403839356948E-003           9           2           5           3
   3.5251050833590661E-002           9           2           6           1
  -9.0581641924984760E-003           9           2           6           3
  -5.1641898399753822E-003           9           2           7           5
   6.9469227378591396E-003           9           2           7           6
   2.3016881108092049E-002           9           2           9           2
  -4.2059722120500097E-002           9           2           9           4
   3.1467945622658949E-003           9           3           5           2
  -7.7147197242225570E-003           9           3           5           4
  -4.2331012943708224E-003           9           3           6           2
   1.0377922487192600E-002           9           3           6           4
  -1.5353105368134190E-002           9           3           9           1
   6.4048970860726070E-003           9           3           9           3
  -2.8679898599322010E-003           9           3           9           7
   5.2734409160924062E-002           9           4           5           1
  -1.5200126534928809E-002           9           4           5           3
  -7.0938884398048588E-002           9           4           6           1
   2.0447370820189759E-002           9           4           6           3
   6.4892062427914510E-003           9           4           7           5
  -8.7293488031261659E-003           9           4           7           6
  -4.2059722120500097E-002           9           4           9           2
   8.0798829731946506E-002           9           4           9           4
  -4.0911972851391240E-002           9           5           2           1
  -9.7331490721966809E-003           9           5           3           2
   6.7143874377330978E-002           9           5           4           1
  -2.6154992836028120E-002           9           5           4           3
  -2.5764474432128859E-002           9           5           7           2
   3.8312559934552688E-002           9           5           7           4
  -6.7778192027304562E-002           9           5           8           5
  -2.9484751784019280E-002           9           5           8           6
   7.1284887910339378E-002           9           5           9           5
  -6.7778192027304521E-002           9           5           9           6
   5.5035218157929007E-002           9           6           2           1
   1.3093134972926900E-002           9           6           3           2
  -9.0322649258390120E-002           9           6           4           1
   3.5183972718170350E-002           9           6           4           3
   3.4658643235005407E-002           9           6           7           2
  -5.1538460436652722E-002           9           6           7           4
   7.0275872000210959E-002           9           6           8           5
   6.7778192027304549E-002           9           6           8           6
  -6.7778192027304521E-002           9           6           9           5
  0.11207600812653100                9           6           9           6
  -8.0916648307318984E-003           9           7           5           2
   1.3791074037965100E-002           9           7           5           4
   1.0884993027292450E-002           9           7           6           2
  -1.8551898513145149E-002           9           7           6           4
   2.6499854627830409E-002           9           7           9           1
  -2.8679898599322010E-003           9           7           9           3
   2.9656229507450990E-002           9           7           9           7
  -2.8308669527543160E-002           9           8           5           5
   8.5185389822235533E-003           9           8           6           5
   2.8308669527543160E-002           9           8           6           6
   3.2232496313440571E-002           9           8           9           8
  0.61156169890678402                9           9           1           1
  0.35022382161482041                9           9           2           2
 -0.11261578970550300                9           9           3           1
  0.35389323493522712                9           9           3           3
 -0.13676822225196891                9           9           4           2
  0.50035735339253473                9           9           4           4
  0.62368134119341512                9           9           5           5
  -2.8308669527543202E-002           9           9           6           5
  0.64071841915786221                9           9           6           6
  -3.7089943519802777E-002           9           9           7           1
   7.6514354525968387E-002           9           9           7           3
  0.59011411145066994                9           9           7           7
  0.58979984959243403                9           9           8           8
  0.65426484221931513                9           9           9           9
  -2.6503979163040141E-002          10           1           2           1
   1.0433142748646210E-002          10           1           3           2
   5.7677969098795551E-002          10           1           4           1
  -2.5347136916424130E-002          10           1           4           3
  -1.0887208549890200E-002          10           1           7           2
   1.1719082725316269E-002          10           1           7           4
  -3.9817882194758937E-002          10           1           8           5
  -2.9599739400999830E-002          10           1           8           6
   2.9599739400999820E-002          10           1           9           5
  -3.9817882194758923E-002          10           1           9           6
   6.5423570909617410E-002          10           1          10           1
  -3.0817751676931120E-002          10           1          10           3
  -2.8901409409375360E-003          10           1          10           7
  -2.3196393848402240E-002          10           2           1           1
   5.7705440378248646E-003          10           2           2           2
   1.8835551146424361E-002          10           2           3           1
   2.5643662772740438E-003          10           2           3           3
   7.7559645744636118E-003          10           2           4           2
  -1.6057594174444412E-002          10           2           4           4
  -1.4741353835388740E-002          10           2           5           5
  -1.4741353835388750E-002          10           2           6           6
   1.3003599643445199E-002          10           2           7           1
  -6.3912888912025729E-003          10           2           7           3
  -2.4323062091471181E-002          10           2           7           7
  -1.3725281026691009E-002          10           2           8           8
  -1.3725281026691001E-002          10           2           9           9
   1.8964057726837472E-002          10           2          10           2
  -2.9374679255060061E-002          10           2          10           4
  -2.9396586085275480E-002          10           2          10          10
   2.8921272266296701E-002          10           3           2           1
   6.2042732945860549E-003          10           3           3           2
  -4.6668303438588569E-002          10           3           4           1
   1.8101432808545901E-002          10           3           4           3
   1.6754063539685358E-002          10           3           7           2
  -2.1861457760861659E-002          10           3           7           4
   3.8907405459183510E-002          10           3           8           5
   2.8922910985769521E-002          10           3           8           6
  -2.8922910985769511E-002          10           3           9           5
   3.8907405459183482E-002          10           3           9           6
  -3.0817751676931120E-002          10           3          10           1
   2.6326890369690052E-002          10           3          10           3
   6.7589000445025362E-003          10           3          10           7
  0.13134376764122671               10           4           1           1
   3.3186548100122712E-002          10           4           2           2
  -5.1795260999184432E-002          10           4           3           1
   3.8197461506038317E-002          10           4           3           3
  -4.5642794511014009E-002          10           4           4           2
   9.5127660932355654E-002          10           4           4           4
  0.11461848310941530               10           4           5           5
  0.11461848310941530               10           4           6           6
  -2.7748641740300919E-002          10           4           7           1
   2.8113435826651371E-002          10           4           7           3
  0.13310053938968761               10           4           7           7
  0.11361876532055680               10           4           8           8
  0.11361876532055680               10           4           9           9
  -2.9374679255060061E-002          10           4          10           2
   7.5633643993423649E-002          10           4          10           4
  0.13843527588159410               10           4          10          10
  -1.4124493594367370E-003          10           5           5           2
   5.0051486525061854E-003          10           5           5           4
  -4.8074808004034660E-003          10           5           8           1
   4.4042915621112858E-003          10           5           8           3
   1.3342145734248721E-003          10           5           8           7
   3.5737756762458639E-003          10           5           9           1
  -3.2740536487315991E-003          10           5           9           3
  -9.9182582050013246E-004          10           5           9           7
   1.1631140488484230E-002          10           5          10           5
  -1.4124493594367420E-003          10           6           6           2
   5.0051486525061802E-003          10           6           6           4
  -3.5737756762458609E-003          10           6           8           1
   3.2740536487316260E-003          10           6           8           3
   9.9182582050008064E-004          10           6           8           7
  -4.8074808004034686E-003          10           6           9           1
   4.4042915621112511E-003          10           6           9           3
   1.3342145734249399E-003          10           6           9           7
   1.1631140488484241E-002          10           6          10           6
   5.2606137590561208E-003          10           7           2           1
   5.9280401389354984E-003          10           7           3           2
  -7.7305876196589627E-003          10           7           4           1
   5.9608846117422424E-003          10           7           4           3
  -8.0570987102572354E-003          10           7           7           2
   1.4352725510205531E-002          10           7           7           4
   7.9408303544378327E-003          10           7           8           5
   5.9030389403745623E-003          10           7           8           6
  -5.9030389403746334E-003          10           7           9           5
   7.9408303544379281E-003          10           7           9           6
  -2.8901409409375360E-003          10           7          10           1
   6.7589000445025362E-003          10           7          10           3
   2.6442990775576141E-002          10           7          10           7
  -7.6487998044478102E-004          10           8           5           1
   4.3528934901010674E-003          10           8           5           3
  -5.6859498411965790E-004          10           8           6           1
   3.2358454504709810E-003          10           8           6           3
   3.3711424181091122E-003          10           8           7           5
   2.5060332584142401E-003          10           8           7           6
   4.3739433512509902E-004          10           8           8           2
   3.3229223746480819E-003          10           8           8           4
   1.9231469831795609E-002          10           8          10           8
   5.6859498411965996E-004          10           9           5           1
  -3.2358454504709802E-003          10           9           5           3
  -7.6487998044478362E-004          10           9           6           1
   4.3528934901010648E-003          10           9           6           3
  -2.5060332584142340E-003          10           9           7           5
   3.3711424181091030E-003          10           9           7           6
   4.3739433512495179E-004          10           9           9           2
   3.3229223746479670E-003          10           9           9           4
   1.9231469831795661E-002          10           9          10           9
  0.57491592630639521               10          10           1           1
  0.34084408491088669               10          10           2           2
 -0.10753264740722150               10          10           3           1
  0.34221647650411452               10          10           3           3
 -0.12418239916984609               10          10           4           2
  0.47640302353831609               10          10           4           4
  0.55955223091650486               10          10           5           5
  0.55955223091650497               10          10           6           6
  -4.4239475511715753E-002          10          10           7           1
   7.2905328220261620E-002          10          10           7           3
  0.56627539481574640               10          10           7           7
  0.55472909279603344               10          10           8           8
  0.55472909279603322               10          10           9           9
  -2.9396586085275480E-002          10          10          10           2
  0.13843527588159410               10          10          10           4
  0.57006369603725426               10          10          10          10
   4.8952479963032938E-002          11           1           1           1
   1.7003496723129369E-002          11           1           2           2
  -2.6710051363652561E-002          11           1           3           1
   9.9626602099642959E-003          11           1           3           3
  -2.3486323000881871E-002          11           1           4           2
   4.9654312674965548E-002          11           1           4           4
   1.7544160789488780E-002          11           1           5           5
   1.7544160789488780E-002          11           1           6           6
  -7.9217170546968130E-003          11           1           7           1
   1.0190071602151411E-002          11           1           7           3
   6.4875790424525875E-002          11           1           7           7
   4.0719132582309622E-002          11           1           8           8
   4.0719132582309629E-002          11           1           9           9
  -2.7339464981145589E-002          11           1          10           2
   6.0137406805352622E-002          11           1          10           4
   8.7388212017294381E-002          11           1          10          10
   7.4593872467666661E-002          11           1          11           1
  -3.0613035713005061E-002          11           1          11           3