 &FCI NORB=   5,NELEC=101,MS2=2,
  ORBSYM=1,1,1,1,1,
  ISYM=1,
 &END
 0.4260270005848713    1    1    1    1
 0.0008419295867402535    2    1    1    1
 0.1148573392786162    2    1    2    1
 0.4225474938202827    2    2    1    1
 0.06264780361668686    2    2    2    1
 0.4754472467441531    2    2    2    2
 -0.009390261870818694    3    1    1    1
 -0.001593579765159288    3    1    2    1
 -0.01039122670231188    3    1    2    2
 0.0008684633214317515    3    1    3    1
 -0.002516419636798552    3    2    1    1
 -0.005045659131099207    3    2    2    1
 -0.005167761460308622    3    2    2    2
 8.154474273338462e-05    3    2    3    1
 0.0004167216022781961    3    2    3    2
 0.1468451558781897    3    3    1    1
 0.009355356615578406    3    3    2    1
 0.1540626217714118    3    3    2    2
 0.01263244783607657    3    3    3    1
 -0.001928662504408143    3    3    3    2
 0.5161303976122278    3    3    3    3
 0.03828785072668157    4    1    1    1
 -0.003149529030975622    4    1    2    1
 0.03934167498305412    4    1    2    2
 -0.001969845522351288    4    1    3    1
 -0.0002056453019643006    4    1    3    2
 -0.01080649279392039    4    1    3    3
 0.01829307176775996    4    1    4    1
 0.003019064468654454    4    2    1    1
 0.02274206753023256    4    2    2    1
 0.01558976367657357    4    2    2    2
 -0.0002522044596592582    4    2    3    1
 -0.000973827264378943    4    2    3    2
 0.005804884502069349    4    2    3    3
 -0.001057483876868647    4    2    4    1
 0.005609379772928236    4    2    4    2
 -0.0005059336093374571    4    3    1    1
 1.214192375203452e-06    4    3    2    1
 -0.0001519848279844577    4    3    2    2
 2.640624834514131e-05    4    3    3    1
 0.0001489178574125688    4    3    3    2
 0.005937616943200176    4    3    3    3
 0.000402695361799632    4    3    4    1
 9.484129836941005e-05    4    3    4    2
 0.001685342696388933    4    3    4    3
 0.1999924525105374    4    4    1    1
 0.02933746102714221    4    4    2    1
 0.2075877268832672    4    4    2    2
 0.001547851969021191    4    4    3    1
 -0.001577230629449698    4    4    3    2
 0.21308868216698    4    4    3    3
 -0.05852441000668136    4    4    4    1
 0.0137884727373752    4    4    4    2
 -0.001620297938175318    4    4    4    3
 0.5153601026455999    4    4    4    4
 0.0006463287234571664    5    1    1    1
 -1.960924009985086e-05    5    1    2    1
 0.0006091549195581239    5    1    2    2
 -7.148427681558559e-05    5    1    3    1
 1.926497509110071e-05    5    1    3    2
 -0.001412370435992807    5    1    3    3
 6.537423756715554e-05    5    1    4    1
 -3.425739463437732e-05    5    1    4    2
 -2.238182304470826e-05    5    1    4    3
 0.0001887443988525798    5    1    4    4
 0.0008121013158564369    5    1    5    1
 0.000165085586784208    5    2    1    1
 0.0002463145639481624    5    2    2    1
 0.0003972935638704495    5    2    2    2
 -6.117603911689589e-06    5    2    3    1
 -1.971855646765286e-05    5    2    3    2
 -0.0002241694910990783    5    2    3    3
 4.114814610939855e-05    5    2    4    1
 8.543001445913848e-05    5    2    4    2
 -4.531887960008579e-05    5    2    4    3
 0.0001055308473874366    5    2    4    4
 -1.913776312544528e-06    5    2    5    1
 4.394671246231418e-05    5    2    5    2
 -0.000358495948381187    5    3    1    1
 9.504462965442462e-05    5    3    2    1
 -0.0002592631587901839    5    3    2    2
 -4.746403200969491e-05    5    3    3    1
 -5.300447770603836e-06    5    3    3    2
 0.001402902342027295    5    3    3    3
 0.0001921796390201561    5    3    4    1
 -5.048551672469186e-06    5    3    4    2
 4.643068501029516e-05    5    3    4    3
 -0.001322829927954888    5    3    4    4
 0.0001904883379878332    5    3    5    1
 -3.504779529892627e-05    5    3    5    2
 0.002840866822562729    5    3    5    3
 0.0005826165759303457    5    4    1    1
 -0.0003521133395547762    5    4    2    1
 0.0006956246424577302    5    4    2    2
 -1.158646535171822e-05    5    4    3    1
 -3.890207408618264e-05    5    4    3    2
 -0.0001008189500707312    5    4    3    3
 0.0001161168357281493    5    4    4    1
 5.125167372436098e-05    5    4    4    2
 -0.0001126941125523771    5    4    4    3
 -1.660871127162452e-05    5    4    4    4
 -0.003355096307375949    5    4    5    1
 9.103387958017961e-05    5    4    5    2
 -0.0005763438142749675    5    4    5    3
 0.01749346134888439    5    4    5    4
 0.1748133370220376    5    5    1    1
 0.02225245195767403    5    5    2    1
 0.1806792358242678    5    5    2    2
 0.002610415970550528    5    5    3    1
 -0.001438975249361727    5    5    3    2
 0.2250900479339419    5    5    3    3
 -0.04701119504705095    5    5    4    1
 0.01082066225378457    5    5    4    2
 -0.000954376103998991    5    5    4    3
 0.4274310087211873    5    5    4    4
 5.764392909694364e-05    5    5    5    1
 9.888547142695456e-05    5    5    5    2
 -0.001246411269704828    5    5    5    3
 -7.991347157303128e-05    5    5    5    4
 0.4282127904973331    5    5    5    5
 -1.342783768004789    1    1  0  0
 -0.1706471700693228    2    1  0  0
 -1.774656464917548    2    2  0  0
 -0.009392428194408525    3    1  0  0
 0.004309678982053117    3    2  0  0
 -1.835777209916557    3    3  0  0
 0.09811980318252678    4    1  0  0
 -0.09640646014295406    4    2  0  0
 -0.05068415918166248    4    3  0  0
 -2.093290454987923    4    4  0  0
 0.00188446461872226    5    1  0  0
 -0.0002515976934287616    5    2  0  0
 0.001887393357886485    5    3  0  0
 -0.0008904826729600815    5    4  0  0
 -1.978575525177348    5    5  0  0
 -2776.44650984599  0  0  0  0
