 &FCI NORB=   5,NELEC= 6,MS2=0,
  ORBSYM=1,1,1,1,1,
  ISYM=1,
 &END
 0.6330885902261298    1    1    1    1
 0.5984614712507383    1    1    2    2
 0.6289910454320166    1    1    3    3
 -0.04334193071951883    1    1    4    2
 0.5716166560624703    1    1    4    4
 0.09036226783278978    1    1    5    1
 0.6107329162477909    1    1    5    5
 0.04732783305752339    2    1    2    1
 0.02857888352353961    2    1    4    1
 0.002207412442027733    2    1    5    2
 -0.04769072433412266    2    1    5    4
 0.5984614712507386    2    2    1    1
 0.7820871794632871    2    2    2    2
 0.7286053246380755    2    2    3    3
 -1.429412144204889e-15    2    2    4    1
 -0.1216367792704496    2    2    4    2
 0.5493227932072977    2    2    4    4
 0.1597610526224172    2    2    5    1
 -1.23859256184744e-15    2    2    5    2
 0.6079356841221494    2    2    5    5
 0.02881141813980559    3    1    3    1
 0.02368078829978264    3    1    5    3
 0.05594691895333261    3    2    3    2
 0.001723021626657569    3    2    4    3
 0.6289910454320167    3    3    1    1
 0.7286053246380755    3    3    2    2
 0.8801590933750449    3    3    3    3
 -1.609823385706477e-15    3    3    4    1
 -0.1165457962475704    3    3    4    2
 0.5892659584993326    3    3    4    4
 0.1897477795918161    3    3    5    1
 -1.176142516712275e-15    3    3    5    2
 0.6247469458145134    3    3    5    5
 0.02857888352353962    4    1    2    1
 -1.412064909445121e-15    4    1    2    2
 -1.595945597898662e-15    4    1    3    3
 0.07068144819935067    4    1    4    1
 -0.04442113647180879    4    1    5    2
 -0.06424608209834373    4    1    5    4
 -1.817990202823694e-15    4    1    5    5
 -0.04334193071951897    4    2    1    1
 -0.1216367792704496    4    2    2    2
 -0.1165457962475704    4    2    3    3
 0.06900638470563822    4    2    4    2
 -0.04464041324016512    4    2    4    4
 -0.07873236895210645    4    2    5    1
 -0.04150386348601885    4    2    5    5
 0.001723021626657579    4    3    3    2
 0.03857529918273358    4    3    4    3
 0.5716166560624705    4    4    1    1
 0.5493227932072975    4    4    2    2
 0.5892659584993324    4    4    3    3
 -0.04464041324016523    4    4    4    2
 0.597472000340198    4    4    4    4
 0.03797315706903288    4    4    5    1
 -1.242062008799394e-15    4    4    5    2
 -1.609823385706477e-15    4    4    5    4
 0.5664593920678593    4    4    5    5
 0.09036226783278978    5    1    1    1
 0.1597610526224172    5    1    2    2
 0.189747779591816    5    1    3    3
 -0.07873236895210642    5    1    4    2
 0.03797315706903293    5    1    4    4
 0.1526096907724766    5    1    5    1
 -1.078998002057574e-15    5    1    5    2
 0.09285797275517282    5    1    5    5
 0.002207412442027726    5    2    2    1
 -1.202163368851927e-15    5    2    2    2
 -1.186550857568136e-15    5    2    3    3
 -0.04442113647180879    5    2    4    1
 -1.255939796607208e-15    5    2    4    4
 -1.028691021254247e-15    5    2    5    1
 0.06912002395693058    5    2    5    2
 0.05797041639955227    5    2    5    4
 0.02368078829978265    5    3    3    1
 0.02432401487101227    5    3    5    3
 -0.04769072433412266    5    4    2    1
 -0.06424608209834377    5    4    4    1
 -1.589006703994755e-15    5    4    4    4
 0.05797041639955225    5    4    5    2
 0.1151233886424529    5    4    5    4
 1.290634266126744e-15    5    4    5    5
 0.6107329162477907    5    5    1    1
 0.6079356841221492    5    5    2    2
 0.6247469458145133    5    5    3    3
 -1.720845688168993e-15    5    5    4    1
 -0.04150386348601891    5    5    4    2
 0.5664593920678593    5    5    4    4
 0.09285797275517278    5    5    5    1
 1.27675647831893e-15    5    5    5    4
 0.6193422074752767    5    5    5    5
 -3.628765310650348    1    1  0  0
 -3.786820802995331    2    2  0  0
 -3.902095646402897    3    3  0  0
 6.87080468221892e-15    4    1  0  0
 0.4717129714132821    4    2  0  0
 -1.676672360889241e-15    4    3  0  0
 -2.636454028886788    4    4  0  0
 -0.7634924754351031    5    1  0  0
 4.099476834744072e-15    5    2  0  0
 -2.700373004484141    5    5  0  0
 -62.18317714356726  0  0  0  0
