 &FCI NORB=   5,NELEC= 6,MS2=0,
  ORBSYM=1,1,1,1,1,
  ISYM=1,
 &END
 0.6330885902261292    1    1    1    1
 0.5984614712507381    1    1    2    2
 0.6289910454320158    1    1    3    3
 -0.04334193071951896    1    1    4    2
 0.5716166560624693    1    1    4    4
 0.09036226783278954    1    1    5    1
 0.6107329162477901    1    1    5    5
 0.04732783305752339    2    1    2    1
 0.02857888352353974    2    1    4    1
 0.002207412442027556    2    1    5    2
 -0.04769072433412279    2    1    5    4
 0.5984614712507381    2    2    1    1
 0.7820871794632863    2    2    2    2
 0.7286053246380748    2    2    3    3
 -0.1216367792704495    2    2    4    2
 0.5493227932072966    2    2    4    4
 0.1597610526224169    2    2    5    1
 0.6079356841221487    2    2    5    5
 0.02881141813980554    3    1    3    1
 0.02368078829978263    3    1    5    3
 0.05594691895333231    3    2    3    2
 0.001723021626657432    3    2    4    3
 0.6289910454320158    3    3    1    1
 0.7286053246380748    3    3    2    2
 0.8801590933750436    3    3    3    3
 -0.1165457962475703    3    3    4    2
 0.5892659584993313    3    3    4    4
 0.1897477795918159    3    3    5    1
 0.624746945814513    3    3    5    5
 0.02857888352353972    4    1    2    1
 0.07068144819935075    4    1    4    1
 -0.04442113647180878    4    1    5    2
 -0.0642460820983438    4    1    5    4
 -0.04334193071951885    4    2    1    1
 -0.1216367792704494    4    2    2    2
 -0.1165457962475703    4    2    3    3
 0.06900638470563807    4    2    4    2
 -0.04464041324016521    4    2    4    4
 -0.07873236895210625    4    2    5    1
 -0.04150386348601881    4    2    5    5
 0.001723021626657432    4    3    3    2
 0.03857529918273345    4    3    4    3
 0.5716166560624696    4    4    1    1
 0.5493227932072969    4    4    2    2
 0.5892659584993313    4    4    3    3
 -0.0446404132401653    4    4    4    2
 0.5974720003401962    4    4    4    4
 0.03797315706903287    4    4    5    1
 0.5664593920678583    4    4    5    5
 0.09036226783278958    5    1    1    1
 0.159761052622417    5    1    2    2
 0.1897477795918159    5    1    3    3
 -0.07873236895210621    5    1    4    2
 0.03797315706903297    5    1    4    4
 0.1526096907724765    5    1    5    1
 0.09285797275517282    5    1    5    5
 0.00220741244202754    5    2    2    1
 -0.04442113647180881    5    2    4    1
 0.06912002395693032    5    2    5    2
 0.05797041639955211    5    2    5    4
 0.02368078829978263    5    3    3    1
 0.02432401487101227    5    3    5    3
 -0.04769072433412282    5    4    2    1
 -0.06424608209834383    5    4    4    1
 0.05797041639955208    5    4    5    2
 0.1151233886424527    5    4    5    4
 0.6107329162477904    5    5    1    1
 0.6079356841221488    5    5    2    2
 0.624746945814513    5    5    3    3
 -0.04150386348601882    5    5    4    2
 0.5664593920678582    5    5    4    4
 0.09285797275517287    5    5    5    1
 0.6193422074752765    5    5    5    5
 -3.628765310650344    1    1  0  0
 -3.786820802995326    2    2  0  0
 -3.902095646402891    3    3  0  0
 2.177616716482921e-15    4    1  0  0
 0.47171297141328    4    2  0  0
 -2.63645402888678    4    4  0  0
 -0.7634924754351027    5    1  0  0
 1.644439231211698e-15    5    2  0  0
 1.298477986350521e-15    5    3  0  0
 -2.700373004484137    5    5  0  0
 -62.18317714356729  0  0  0  0
