 &FCI NORB=   5,NELEC= 6,MS2=0,
  ORBSYM=1,1,1,1,1,
  ISYM=1,
 &END
 0.6330885902261306    1    1    1    1
 0.598461471250739    1    1    2    2
 0.6289910454320171    1    1    3    3
 -0.04334193071951928    1    1    4    2
 0.5716166560624709    1    1    4    4
 0.09036226783278994    1    1    5    1
 0.6107329162477905    1    1    5    5
 0.0473278330575236    2    1    2    1
 0.02857888352353968    2    1    4    1
 0.002207412442027453    2    1    5    2
 -0.04769072433412282    2    1    5    4
 0.5984614712507389    2    2    1    1
 0.7820871794632861    2    2    2    2
 0.7286053246380748    2    2    3    3
 -0.1216367792704501    2    2    4    2
 0.5493227932072982    2    2    4    4
 0.1597610526224167    2    2    5    1
 0.6079356841221484    2    2    5    5
 0.02881141813980562    3    1    3    1
 0.02368078829978263    3    1    5    3
 0.05594691895333258    3    2    3    2
 0.001723021626657484    3    2    4    3
 0.6289910454320172    3    3    1    1
 0.7286053246380748    3    3    2    2
 0.8801590933750449    3    3    3    3
 -0.1165457962475711    3    3    4    2
 0.5892659584993329    3    3    4    4
 0.1897477795918159    3    3    5    1
 0.6247469458145125    3    3    5    5
 0.0285788835235397    4    1    2    1
 0.07068144819935054    4    1    4    1
 -0.04442113647180902    4    1    5    2
 -0.06424608209834352    4    1    5    4
 -0.04334193071951915    4    2    1    1
 -0.1216367792704501    4    2    2    2
 -0.116545796247571    4    2    3    3
 0.06900638470563886    4    2    4    2
 -0.0446404132401655    4    2    4    4
 -0.07873236895210678    4    2    5    1
 -0.04150386348601892    4    2    5    5
 0.001723021626657472    4    3    3    2
 0.0385752991827335    4    3    4    3
 0.5716166560624709    4    4    1    1
 0.5493227932072982    4    4    2    2
 0.5892659584993327    4    4    3    3
 -0.04464041324016563    4    4    4    2
 0.5974720003401979    4    4    4    4
 0.0379731570690334    4    4    5    1
 0.5664593920678589    4    4    5    5
 0.09036226783278986    5    1    1    1
 0.1597610526224167    5    1    2    2
 0.189747779591816    5    1    3    3
 -0.07873236895210685    5    1    4    2
 0.03797315706903331    5    1    4    4
 0.1526096907724765    5    1    5    1
 0.09285797275517252    5    1    5    5
 0.00220741244202744    5    2    2    1
 -0.044421136471809    5    2    4    1
 0.06912002395693079    5    2    5    2
 0.05797041639955232    5    2    5    4
 0.02368078829978264    5    3    3    1
 0.02432401487101223    5    3    5    3
 -0.04769072433412287    5    4    2    1
 -0.0642460820983435    5    4    4    1
 0.05797041639955233    5    4    5    2
 0.1151233886424524    5    4    5    4
 0.6107329162477905    5    5    1    1
 0.6079356841221484    5    5    2    2
 0.6247469458145125    5    5    3    3
 -0.04150386348601885    5    5    4    2
 0.5664593920678588    5    5    4    4
 0.09285797275517266    5    5    5    1
 0.619342207475275    5    5    5    5
 -3.628765310650351    1    1  0  0
 1.18233230775428e-15    2    1  0  0
 -3.786820802995329    2    2  0  0
 -3.902095646402897    3    3  0  0
 2.356764669117232e-15    4    1  0  0
 0.4717129714132853    4    2  0  0
 -2.636454028886789    4    4  0  0
 -0.7634924754351035    5    1  0  0
 2.320883231644999e-15    5    2  0  0
 -2.700373004484138    5    5  0  0
 -62.18317714356726  0  0  0  0
