 &FCI NORB=   5,NELEC= 6,MS2=0,
  ORBSYM=1,1,1,1,1,
  ISYM=1,
 &END
 0.6330885902261323    1    1    1    1
 0.5984614712507399    1    1    2    2
 0.6289910454320181    1    1    3    3
 -0.0433419307195191    1    1    4    2
 0.5716166560624718    1    1    4    4
 0.09036226783279012    1    1    5    1
 0.6107329162477922    1    1    5    5
 0.04732783305752357    2    1    2    1
 0.02857888352353968    2    1    4    1
 0.002207412442027643    2    1    5    2
 -0.04769072433412279    2    1    5    4
 0.5984614712507401    2    2    1    1
 0.7820871794632874    2    2    2    2
 0.7286053246380757    2    2    3    3
 -0.1216367792704498    2    2    4    2
 0.5493227932072982    2    2    4    4
 0.1597610526224172    2    2    5    1
 0.6079356841221495    2    2    5    5
 0.02881141813980567    3    1    3    1
 0.02368078829978268    3    1    5    3
 0.05594691895333268    3    2    3    2
 0.001723021626657556    3    2    4    3
 0.6289910454320181    3    3    1    1
 0.7286053246380757    3    3    2    2
 0.8801590933750454    3    3    3    3
 -0.1165457962475708    3    3    4    2
 0.5892659584993329    3    3    4    4
 0.1897477795918162    3    3    5    1
 0.6247469458145135    3    3    5    5
 0.0285788835235397    4    1    2    1
 0.07068144819935075    4    1    4    1
 -0.04442113647180898    4    1    5    2
 -0.06424608209834373    4    1    5    4
 -0.0433419307195191    4    2    1    1
 -0.1216367792704499    4    2    2    2
 -0.1165457962475708    4    2    3    3
 0.06900638470563861    4    2    4    2
 -0.04464041324016524    4    2    4    4
 -0.0787323689521067    4    2    5    1
 -0.04150386348601896    4    2    5    5
 0.001723021626657528    4    3    3    2
 0.03857529918273352    4    3    4    3
 0.5716166560624718    4    4    1    1
 0.5493227932072983    4    4    2    2
 0.5892659584993329    4    4    3    3
 -0.044640413240165    4    4    4    2
 0.597472000340199    4    4    4    4
 0.03797315706903306    4    4    5    1
 0.5664593920678597    4    4    5    5
 0.09036226783279011    5    1    1    1
 0.1597610526224172    5    1    2    2
 0.1897477795918162    5    1    3    3
 -0.0787323689521067    5    1    4    2
 0.03797315706903327    5    1    4    4
 0.1526096907724769    5    1    5    1
 0.09285797275517277    5    1    5    5
 0.002207412442027643    5    2    2    1
 -0.04442113647180897    5    2    4    1
 0.0691200239569308    5    2    5    2
 0.05797041639955239    5    2    5    4
 0.02368078829978268    5    3    3    1
 0.02432401487101226    5    3    5    3
 -0.0476907243341228    5    4    2    1
 -0.06424608209834377    5    4    4    1
 0.05797041639955238    5    4    5    2
 0.1151233886424529    5    4    5    4
 0.6107329162477921    5    5    1    1
 0.6079356841221494    5    5    2    2
 0.6247469458145135    5    5    3    3
 -0.04150386348601872    5    5    4    2
 0.5664593920678598    5    5    4    4
 0.09285797275517256    5    5    5    1
 0.6193422074752769    5    5    5    5
 -3.628765310650353    1    1  0  0
 -1.043178515711805e-15    2    1  0  0
 -3.78682080299533    2    2  0  0
 -3.902095646402896    3    3  0  0
 0.4717129714132829    4    2  0  0
 -2.636454028886788    4    4  0  0
 -0.7634924754351033    5    1  0  0
 -2.700373004484137    5    5  0  0
 -62.1831771435673  0  0  0  0
