 &FCI NORB=  18,NELEC= 9,MS2=0,
  ORBSYM=1,1,1,1,1,1,1,1,1,1,1,1,1,1,1,1,1,1,
  ISYM=1,
 &END
 0.5747302046388031    1    1    1    1
 0.08299625718189201    2    1    1    1
 0.05360191495274807    2    1    2    1
 0.3964782635182516    2    2    1    1
 0.07107781292356874    2    2    2    1
 0.368052966422296    2    2    2    2
 -0.1104143747579615    3    1    1    1
 -0.0348518212806932    3    1    2    1
 -0.05227861740260153    3    1    2    2
 0.06368131730985598    3    1    3    1
 0.02367671275898686    3    2    1    1
 0.01360996060367863    3    2    2    1
 0.03351222124627284    3    2    2    2
 -0.003768399539719709    3    2    3    1
 0.03076704106533936    3    2    3    2
 0.398819986504111    3    3    1    1
 0.06534406593245927    3    3    2    1
 0.3445236389252256    3    3    2    2
 -0.07128333636368663    3    3    3    1
 0.04978863880749211    3    3    3    2
 0.4201673933227589    3    3    3    3
 0.0828343261673451    4    1    1    1
 0.01695414133556647    4    1    2    1
 0.03975833232054717    4    1    2    2
 -0.04532811590088097    4    1    3    1
 0.00901341419483204    4    1    3    2
 0.06338742256163062    4    1    3    3
 0.06556294769943875    4    1    4    1
 0.007822120671913292    4    2    1    1
 -0.004500217362574977    4    2    2    1
 -0.009341426891506712    4    2    2    2
 -0.00302910560118073    4    2    3    1
 -0.001623785629421052    4    2    3    2
 0.0004251224542721094    4    2    3    3
 0.01356708992044067    4    2    4    1
 0.02311715145002626    4    2    4    2
 -0.0701439990889362    4    3    1    1
 -0.01115329939586473    4    3    2    1
 -0.03043540033495174    4    3    2    2
 0.03143083870746046    4    3    3    1
 -0.008816722377400051    4    3    3    2
 -0.04304003343421428    4    3    3    3
 -0.04501180402157532    4    3    4    1
 -0.01335907831770964    4    3    4    2
 0.04841157236887746    4    3    4    3
 0.5277198092830342    4    4    1    1
 0.09845180250619352    4    4    2    1
 0.3856646750030659    4    4    2    2
 -0.1434712107113942    4    4    3    1
 0.02326175817794578    4    4    3    2
 0.4316147553009923    4    4    3    3
 0.1128902458236502    4    4    4    1
 0.008712723559462733    4    4    4    2
 -0.08912577651288459    4    4    4    3
 0.6693496251333154    4    4    4    4
 0.09564644485173832    5    1    1    1
 0.0296202021301913    5    1    2    1
 0.04107826243971479    5    1    2    2
 -0.04474218345961162    5    1    3    1
 0.000246502802210918    5    1    3    2
 0.04228449031229117    5    1    3    3
 0.0217411782366982    5    1    4    1
 0.0007247083446641311    5    1    4    2
 -0.01633693566104127    5    1    4    3
 0.09982198845024311    5    1    4    4
 0.04970240963573687    5    1    5    1
 -0.007665273288742245    5    2    1    1
 -0.008577165650242575    5    2    2    1
 -0.01031787856516439    5    2    2    2
 0.0002432002780394954    5    2    3    1
 -0.008992110024392005    5    2    3    2
 -0.01337952666446269    5    2    3    3
 0.002182812579441569    5    2    4    1
 0.002516330922320271    5    2    4    2
 0.0007271218438121608    5    2    4    3
 -0.01721634549796801    5    2    4    4
 -0.000105438478495144    5    2    5    1
 0.01898297667001244    5    2    5    2
 -0.03253919799698763    5    3    1    1
 -0.007389276620271941    5    3    2    1
 -0.0190075324846383    5    3    2    2
 0.00741748187119393    5    3    3    1
 0.004120501286415234    5    3    3    2
 0.002636573401612804    5    3    3    3
 -0.002317734628196113    5    3    4    1
 0.003107335906604206    5    3    4    2
 -0.0002434326750881686    5    3    4    3
 -0.02457119939268513    5    3    4    4
 -0.01257885109087669    5    3    5    1
 -0.002611044791233063    5    3    5    2
 0.0209807819618134    5    3    5    3
 -0.05624053340055689    5    4    1    1
 -0.01723653552393232    5    4    2    1
 -0.03298877961884418    5    4    2    2
 0.02607539762930536    5    4    3    1
 -0.0006798386656192329    5    4    3    2
 -0.04788639739606727    5    4    3    3
 -0.01444803638217902    5    4    4    1
 -0.006335888390928345    5    4    4    2
 0.009180005170753607    5    4    4    3
 -0.09758573573160997    5    4    4    4
 -0.01899247330563322    5    4    5    1
 -0.005691397411068873    5    4    5    2
 0.005475362866213988    5    4    5    3
 0.05275440964253639    5    4    5    4
 0.3599085934964125    5    5    1    1
 0.05390975624789274    5    5    2    1
 0.2945913177703962    5    5    2    2
 -0.06723983731973673    5    5    3    1
 0.01400478862316447    5    5    3    2
 0.315349837745489    5    5    3    3
 0.03813258023978207    5    5    4    1
 -0.006657750168141972    5    5    4    2
 -0.02402602097514289    5    5    4    3
 0.399128120968782    5    5    4    4
 0.05226721139047458    5    5    5    1
 -0.007748924569134783    5    5    5    2
 -0.01013610405072674    5    5    5    3
 -0.05138083514822904    5    5    5    4
 0.3266637176564862    5    5    5    5
 -0.01491253337424692    6    1    1    1
 0.003938503095840869    6    1    2    1
 -0.005554872585200019    6    1    2    2
 0.009479281442421786    6    1    3    1
 -0.00776699927608158    6    1    3    2
 -0.02435880784992849    6    1    3    3
 -0.02080842230912423    6    1    4    1
 0.0001118761927692413    6    1    4    2
 0.01457964096026322    6    1    4    3
 -0.03662279721109562    6    1    4    4
 0.002815192204978087    6    1    5    1
 0.005408230747130385    6    1    5    2
 -0.002057573393298224    6    1    5    3
 -0.003119311858988126    6    1    5    4
 -0.005869787057784209    6    1    5    5
 0.02629550288661496    6    1    6    1
 0.08542194012343539    6    2    1    1
 0.02682997090829044    6    2    2    1
 0.05706629494260484    6    2    2    2
 -0.03606994796700638    6    2    3    1
 0.008335205586987492    6    2    3    2
 0.04710309609798825    6    2    3    3
 0.02699566681003665    6    2    4    1
 0.00146634788262326    6    2    4    2
 -0.01861923141469736    6    2    4    3
 0.08627713326114929    6    2    4    4
 0.02948354865237976    6    2    5    1
 0.005452518499383214    6    2    5    2
 -0.007823591441513535    6    2    5    3
 -0.02448652434743744    6    2    5    4
 0.0481590228251925    6    2    5    5
 0.003455033762309205    6    2    6    1
 0.05301418757639845    6    2    6    2
 0.02911735191964469    6    3    1    1
 0.002488819243299192    6    3    2    1
 0.01186791723426869    6    3    2    2
 -0.01595312228987218    6    3    3    1
 -0.003333942981298136    6    3    3    2
 0.002235730186081297    6    3    3    3
 0.01524582821529607    6    3    4    1
 0.00127733735485591    6    3    4    2
 -0.008258928033907148    6    3    4    3
 0.04108569278234915    6    3    4    4
 0.01098208159189566    6    3    5    1
 0.0008150366835255978    6    3    5    2
 -0.00784595860934084    6    3    5    3
 -0.006079509396733159    6    3    5    4
 0.01224512292777291    6    3    5    5
 -0.006943680765398661    6    3    6    1
 0.01476977290770668    6    3    6    2
 0.01859488698339662    6    3    6    3
 -0.1489262486900684    6    4    1    1
 -0.02982123062558047    6    4    2    1
 -0.07647372240305803    6    4    2    2
 0.06468839669208147    6    4    3    1
 -0.01006810991821108    6    4    3    2
 -0.07872074314843713    6    4    3    3
 -0.06282346725722178    6    4    4    1
 -0.008242458307292835    6    4    4    2
 0.05520665941913293    6    4    4    3
 -0.1843520691001237    6    4    4    4
 -0.04829356882005564    6    4    5    1
 -0.009957220836039322    6    4    5    2
 0.01193767770561606    6    4    5    3
 0.04445903262337563    6    4    5    4
 -0.07736779462021937    6    4    5    5
 0.01085198295481407    6    4    6    1
 -0.07067710227705463    6    4    6    2
 -0.03185997848440717    6    4    6    3
 0.1674778642944909    6    4    6    4
 0.07833467603034507    6    5    1    1
 0.02187577551321242    6    5    2    1
 0.04310037958936414    6    5    2    2
 -0.02899428578486737    6    5    3    1
 0.0001270069832588311    6    5    3    2
 0.02128856492388825    6    5    3    3
 0.0135279642105503    6    5    4    1
 -0.002502985947285265    6    5    4    2
 -0.01789217374538814    6    5    4    3
 0.0836822270511005    6    5    4    4
 0.03183920963179207    6    5    5    1
 0.008266668273521342    6    5    5    2
 -0.01177632593880444    6    5    5    3
 -0.0239654333848302    6    5    5    4
 0.04179549531728211    6    5    5    5
 0.01161194532752908    6    5    6    1
 0.04502936793875468    6    5    6    2
 0.01523551640897608    6    5    6    3
 -0.0933275505064573    6    5    6    4
 0.08028918758435603    6    5    6    5
 0.6128850914118966    6    6    1    1
 0.1183045848692437    6    6    2    1
 0.4424036079088494    6    6    2    2
 -0.1719726188342086    6    6    3    1
 0.0398184098769176    6    6    3    2
 0.4543827072286964    6    6    3    3
 0.1273253058901293    6    6    4    1
 -0.005242190989207395    6    6    4    2
 -0.1180541489417111    6    6    4    3
 0.7272748194693974    6    6    4    4
 0.1368833314110243    6    6    5    1
 0.009746021929321792    6    6    5    2
 -0.03137728831276056    6    6    5    3
 -0.1423961825820084    6    6    5    4
 0.4497057082416704    6    6    5    5
 -0.01202040639543726    6    6    6    1
 0.185914170003138    6    6    6    2
 0.05783552042107451    6    6    6    3
 -0.3714478115960976    6    6    6    4
 0.2414748396772339    6    6    6    5
 1.253251688202687    6    6    6    6
 0.006304944712944725    7    1    1    1
 -0.008828893334648877    7    1    2    1
 0.0007930597617870014    7    1    2    2
 -0.00476844020749629    7    1    3    1
 0.003198392633732558    7    1    3    2
 0.009674029890380338    7    1    3    3
 0.02244326171815494    7    1    4    1
 0.00395982922733093    7    1    4    2
 -0.01461125639911348    7    1    4    3
 0.01871802757316468    7    1    4    4
 -0.008326196754100823    7    1    5    1
 -0.0006520907789745239    7    1    5    2
 0.0003551746970155893    7    1    5    3
 0.007127967444635698    7    1    5    4
 -0.006073828894527657    7    1    5    5
 -0.0145716308974506    7    1    6    1
 0.001793566790882549    7    1    6    2
 0.006890536023051351    7    1    6    3
 -0.01475078110806981    7    1    6    4
 -0.003458926842172781    7    1    6    5
 0.009390664813532472    7    1    6    6
 0.02514366877691856    7    1    7    1
 -0.004450315009635519    7    2    1    1
 0.001255792101288157    7    2    2    1
 0.001585419868770077    7    2    2    2
 -0.004111931222423981    7    2    3    1
 -0.001278031458246042    7    2    3    2
 0.004890449687682589    7    2    3    3
 0.002813404332400981    7    2    4    1
 0.002038423175972756    7    2    4    2
 0.003750776862150424    7    2    4    3
 0.01051915921216305    7    2    4    4
 0.002311468602234118    7    2    5    1
 0.002530738368669982    7    2    5    2
 0.001557441020857176    7    2    5    3
 -0.003779457920306075    7    2    5    4
 0.008008011472013037    7    2    5    5
 0.0008849042069787752    7    2    6    1
 0.002621267858370805    7    2    6    2
 0.00255783382652159    7    2    6    3
 -0.002459809552657016    7    2    6    4
 -0.0003372726619813628    7    2    6    5
 -0.005919008991495794    7    2    6    6
 0.003298921410798907    7    2    7    1
 0.02025511706935685    7    2    7    2
 -0.01661197815751346    7    3    1    1
 -0.001888835360160955    7    3    2    1
 -0.0001996533629591065    7    3    2    2
 0.0116038109466188    7    3    3    1
 0.009734941459470618    7    3    3    2
 0.01315643708388035    7    3    3    3
 -0.01168119053687734    7    3    4    1
 0.002762950894050734    7    3    4    2
 0.01220194590309634    7    3    4    3
 -0.04063680975007924    7    3    4    4
 -0.01073140652313993    7    3    5    1
 0.002022131819924936    7    3    5    2
 0.01443686268277301    7    3    5    3
 0.00411861267582994    7    3    5    4
 -0.004384928236977062    7    3    5    5
 0.006184077280909023    7    3    6    1
 -0.001471841575646297    7    3    6    2
 -0.007045430727068458    7    3    6    3
 0.01741459366160029    7    3    6    4
 -0.008820893589502474    7    3    6    5
 -0.0386817125691001    7    3    6    6
 -0.005837680322783661    7    3    7    1
 0.002628574092563601    7    3    7    2
 0.03169864323485615    7    3    7    3
 0.1317592834082448    7    4    1    1
 0.03169185285774852    7    4    2    1
 0.07293593704438849    7    4    2    2
 -0.05469896026263114    7    4    3    1
 0.01477072968567744    7    4    3    2
 0.09162527004371765    7    4    3    3
 0.05434622842835526    7    4    4    1
 0.01198199372657146    7    4    4    2
 -0.05294868501069187    7    4    4    3
 0.1809782002695106    7    4    4    4
 0.03823714306036553    7    4    5    1
 -0.003190865929273356    7    4    5    2
 -0.006950868018420786    7    4    5    3
 -0.0329532981364293    7    4    5    4
 0.06060935673863439    7    4    5    5
 -0.01814207387118411    7    4    6    1
 0.0320340472906256    7    4    6    2
 0.01633716710174391    7    4    6    3
 -0.08295197707023155    7    4    6    4
 0.03240499804506831    7    4    6    5
 0.2104679494865807    7    4    6    6
 0.01086421805684035    7    4    7    1
 0.001485351068176725    7    4    7    2
 -0.01580594861367789    7    4    7    3
 0.09409429562372799    7    4    7    4
 0.001877854026962668    7    5    1    1
 0.007278639436764299    7    5    2    1
 0.01486782314903725    7    5    2    2
 -0.01060211206935284    7    5    3    1
 0.01096182837409829    7    5    3    2
 0.04429632404282895    7    5    3    3
 0.01639568792503637    7    5    4    1
 -0.0004129850000469562    7    5    4    2
 -0.001902962098537678    7    5    4    3
 0.02543517967089334    7    5    4    4
 -0.007750234530760688    7    5    5    1
 0.002261323304537728    7    5    5    2
 0.007317353373973439    7    5    5    3
 -0.01832031530673438    7    5    5    4
 0.02278634538533967    7    5    5    5
 -0.006586831682815154    7    5    6    1
 0.005116845576727535    7    5    6    2
 -0.002137339888572565    7    5    6    3
 -0.0006590458668998734    7    5    6    4
 -0.01459478816554037    7    5    6    5
 0.009758287368338404    7    5    6    6
 0.005016430337391918    7    5    7    1
 0.005635884829997741    7    5    7    2
 0.01181595633611227    7    5    7    3
 0.005927607039397363    7    5    7    4
 0.04733902225251796    7    5    7    5
 -0.08994342690070362    7    6    1    1
 -0.02056872955043988    7    6    2    1
 -0.04608442698225904    7    6    2    2
 0.04058102535173428    7    6    3    1
 -0.005692217129393364    7    6    3    2
 -0.05706339164728572    7    6    3    3
 -0.03664211316769519    7    6    4    1
 -0.003769197376252168    7    6    4    2
 0.02696823542216666    7    6    4    3
 -0.1136505624996379    7    6    4    4
 -0.02856442585647397    7    6    5    1
 -0.0002173195086576804    7    6    5    2
 0.005102168973462621    7    6    5    3
 0.02260407501135862    7    6    5    4
 -0.05384504697444038    7    6    5    5
 0.008448244331876477    7    6    6    1
 -0.03150404348529114    7    6    6    2
 -0.01525299807016541    7    6    6    3
 0.06490234599978585    7    6    6    4
 -0.02738882544487752    7    6    6    5
 -0.1504110082727305    7    6    6    6
 -0.006743852665128313    7    6    7    1
 0.001052415537744806    7    6    7    2
 0.007334982962425517    7    6    7    3
 -0.04442037731748184    7    6    7    4
 -0.008135269055130366    7    6    7    5
 0.04495562636668993    7    6    7    6
 0.3929415335436726    7    7    1    1
 0.06632404863467377    7    7    2    1
 0.3305222313676832    7    7    2    2
 -0.07618418155488581    7    7    3    1
 0.02933673921216297    7    7    3    2
 0.3669723303154194    7    7    3    3
 0.05614857884681421    7    7    4    1
 0.0002986361718554934    7    7    4    2
 -0.03660657400546437    7    7    4    3
 0.44056346032322    7    7    4    4
 0.05270698851689296    7    7    5    1
 -0.01256336116013586    7    7    5    2
 -0.002633101416973205    7    7    5    3
 -0.05248682051207731    7    7    5    4
 0.3309353997721629    7    7    5    5
 -0.01709806729915573    7    7    6    1
 0.05436911822747206    7    7    6    2
 0.01398276215915125    7    7    6    3
 -0.08330638013453305    7    7    6    4
 0.03097931089068532    7    7    6    5
 0.4545004301104927    7    7    6    6
 0.003334145376804961    7    7    7    1
 0.01814038369807386    7    7    7    2
 0.0004824879249889768    7    7    7    3
 0.08759692289706732    7    7    7    4
 0.04254439806640999    7    7    7    5
 -0.05303034183042099    7    7    7    6
 0.4021434822750259    7    7    7    7
 0.07725214643851759    8    1    1    1
 0.03478548364893696    8    1    2    1
 0.03996346373613016    8    1    2    2
 -0.0329855869721315    8    1    3    1
 -0.007206970228188732    8    1    3    2
 0.02418591603069176    8    1    3    3
 0.02061223087772737    8    1    4    1
 0.006735128855496032    8    1    4    2
 -0.01549789654446502    8    1    4    3
 0.07032288922492369    8    1    4    4
 0.03289263919616459    8    1    5    1
 0.009332425589573042    8    1    5    2
 -0.009150630546585315    8    1    5    3
 -0.01693401975666029    8    1    5    4
 0.0364154468817959    8    1    5    5
 0.01376146580026692    8    1    6    1
 0.02768292206968442    8    1    6    2
 0.005157879184459172    8    1    6    3
 -0.03643426622619723    8    1    6    4
 0.02882225998496976    8    1    6    5
 0.1063473855770392    8    1    6    6
 -0.01171138603339252    8    1    7    1
 0.001370720112512652    8    1    7    2
 -0.006398626975063558    8    1    7    3
 0.02774445240725577    8    1    7    4
 -0.003573368263056821    8    1    7    5
 -0.02167816661772809    8    1    7    6
 0.03820365212907009    8    1    7    7
 0.0633632940818048    8    1    8    1
 0.1582008383113737    8    2    1    1
 0.04696458847655934    8    2    2    1
 0.09183989535490571    8    2    2    2
 -0.06806020398298288    8    2    3    1
 0.01185696198120632    8    2    3    2
 0.08474407524102437    8    2    3    3
 0.05061399230290133    8    2    4    1
 0.008134965845395008    8    2    4    2
 -0.03803916017015445    8    2    4    3
 0.1685963484208298    8    2    4    4
 0.058054672744928    8    2    5    1
 0.000491701546845872    8    2    5    2
 -0.01391549522755562    8    2    5    3
 -0.03210645394959352    8    2    5    4
 0.08234107792250538    8    2    5    5
 -0.0003561267232134742    8    2    6    1
 0.06315395845238911    8    2    6    2
 0.02098518333311498    8    2    6    3
 -0.08684489356338219    8    2    6    4
 0.0477709254392121    8    2    6    5
 0.2432463280064653    8    2    6    6
 0.001477560004063679    8    2    7    1
 -6.518475364694981e-05    8    2    7    2
 -0.0120793760557128    8    2    7    3
 0.06844691684438543    8    2    7    4
 0.004792496926733252    8    2    7    5
 -0.05477308427496494    8    2    7    6
 0.09797272778646686    8    2    7    7
 0.05974248403043982    8    2    8    1
 0.130606708974835    8    2    8    2
 -0.03222736085267999    8    3    1    1
 -0.01508139301177053    8    3    2    1
 -0.01743983255242972    8    3    2    2
 0.007401898614065892    8    3    3    1
 -0.001578586424413666    8    3    3    2
 -0.01759815305941201    8    3    3    3
 -0.006519882786417988    8    3    4    1
 -0.004684307526136395    8    3    4    2
 0.005673972196199825    8    3    4    3
 -0.03677779158819811    8    3    4    4
 -0.007919530909486399    8    3    5    1
 0.001522425021757866    8    3    5    2
 0.002400333013740191    8    3    5    3
 0.008498715544509516    8    3    5    4
 -0.01511639648061976    8    3    5    5
 -0.002565832275817814    8    3    6    1
 -0.002652504074735028    8    3    6    2
 0.0007858098503982845    8    3    6    3
 0.008668582060022755    8    3    6    4
 -0.007045356967792521    8    3    6    5
 -0.02922515755499955    8    3    6    6
 0.001685520542728194    8    3    7    1
 -0.001985082123893602    8    3    7    2
 0.001220577291843643    8    3    7    3
 -0.01352723091890418    8    3    7    4
 0.0009137859716232311    8    3    7    5
 0.00714944327548806    8    3    7    6
 -0.01663790855335501    8    3    7    7
 -0.0157049929104457    8    3    8    1
 -0.00993469782359129    8    3    8    2
 0.01540059128916876    8    3    8    3
 0.1214317415490403    8    4    1    1
 0.03659802046778951    8    4    2    1
 0.06777896255464071    8    4    2    2
 -0.05053411775981394    8    4    3    1
 -0.0006405892267659016    8    4    3    2
 0.06907909818228668    8    4    3    3
 0.03755305991473551    8    4    4    1
 0.01227051615232547    8    4    4    2
 -0.03407282394141428    8    4    4    3
 0.1734243527932454    8    4    4    4
 0.0388304684030295    8    4    5    1
 -0.0006835316451979839    8    4    5    2
 -0.009675757779348131    8    4    5    3
 -0.04269129197176002    8    4    5    4
 0.07397469473093826    8    4    5    5
 -0.003007510225570841    8    4    6    1
 0.03071621728885338    8    4    6    2
 0.01390875087917359    8    4    6    3
 -0.07200920841382044    8    4    6    4
 0.04045290762801977    8    4    6    5
 0.1973075857191854    8    4    6    6
 0.0008995677988215345    8    4    7    1
 0.009879661184786281    8    4    7    2
 -0.01600741041523531    8    4    7    3
 0.07088202125697624    8    4    7    4
 0.0007874824056270564    8    4    7    5
 -0.03910076447539958    8    4    7    6
 0.08227271350511008    8    4    7    7
 0.04356258160964569    8    4    8    1
 0.06996514321178673    8    4    8    2
 -0.02173777896786178    8    4    8    3
 0.08874896771368665    8    4    8    4
 0.01452300828760982    8    5    1    1
 0.01264918710019526    8    5    2    1
 0.01520179659947951    8    5    2    2
 0.00322085271582438    8    5    3    1
 0.00427898969782113    8    5    3    2
 0.01412657022139707    8    5    3    3
 -0.004034182424260824    8    5    4    1
 -0.001052116327450474    8    5    4    2
 0.005846382287482216    8    5    4    3
 -0.01168026718113329    8    5    4    4
 -0.0005711521147147581    8    5    5    1
 -0.002528414485282127    8    5    5    2
 0.002374198399491157    8    5    5    3
 0.003413422529160291    8    5    5    4
 0.002679828632220833    8    5    5    5
 0.006334086454907712    8    5    6    1
 0.001094976217822126    8    5    6    2
 -0.006056707113643519    8    5    6    3
 0.0161551423477523    8    5    6    4
 -0.008776616217428255    8    5    6    5
 -0.02552209342573827    8    5    6    6
 -0.006070993172364517    8    5    7    1
 -0.002737335256246643    8    5    7    2
 0.008142262586744749    8    5    7    3
 -0.00777780001685702    8    5    7    4
 0.005605693729912955    8    5    7    5
 0.004788814781000811    8    5    7    6
 0.01582329268678333    8    5    7    7
 0.01116955266501321    8    5    8    1
 0.000449827223403926    8    5    8    2
 -0.005985844876087145    8    5    8    3
 -0.007140663444332359    8    5    8    4
 0.02146871870612159    8    5    8    5
 0.09863662911557469    8    6    1    1
 0.03431169784596329    8    6    2    1
 0.08090892560791231    8    6    2    2
 -0.03153728951170891    8    6    3    1
 0.01922599304280906    8    6    3    2
 0.06965926733688241    8    6    3    3
 0.02332610057679147    8    6    4    1
 -0.006601453092627082    8    6    4    2
 -0.01444311856645451    8    6    4    3
 0.07550064460426399    8    6    4    4
 0.02826013523525962    8    6    5    1
 -0.002830530372415292    8    6    5    2
 -0.01073988019338844    8    6    5    3
 -0.00370415018066045    8    6    5    4
 0.04371231446072466    8    6    5    5
 -0.0020487945640581    8    6    6    1
 0.03630209295698312    8    6    6    2
 0.006853055793922219    8    6    6    3
 -0.02064716630376482    8    6    6    4
 0.003189568511380001    8    6    6    5
 0.07172162784475371    8    6    6    6
 -0.001432193602430096    8    6    7    1
 -0.006655908506567822    8    6    7    2
 0.0005217006392019716    8    6    7    3
 0.02962823837475497    8    6    7    4
 0.00995830155473525    8    6    7    5
 -0.03170084415277371    8    6    7    6
 0.05984741198041633    8    6    7    7
 0.02708173955820517    8    6    8    1
 0.07181301882097844    8    6    8    2
 -0.003277094170142188    8    6    8    3
 0.01677394330521115    8    6    8    4
 0.01396400047423684    8    6    8    5
 0.09330492652412002    8    6    8    6
 -0.004371021295380894    8    7    1    1
 0.000861489779028891    8    7    2    1
 -0.008350131338633113    8    7    2    2
 -0.005907087998597215    8    7    3    1
 -0.004013607145090037    8    7    3    2
 0.009983834826771261    8    7    3    3
 0.004613777128381021    8    7    4    1
 0.008381862328136995    8    7    4    2
 -0.003720431223875566    8    7    4    3
 0.03963251113506827    8    7    4    4
 -0.001863062414879074    8    7    5    1
 -0.003310774312021707    8    7    5    2
 0.005027402689376285    8    7    5    3
 -0.01455427289882032    8    7    5    4
 0.0126342562996314    8    7    5    5
 -0.004516978280225238    8    7    6    1
 -0.009259602158091454    8    7    6    2
 0.001444711254732931    8    7    6    3
 -0.002028184910030715    8    7    6    4
 -0.002428764327708013    8    7    6    5
 -0.002888850681910722    8    7    6    6
 0.003260128663658072    8    7    7    1
 0.008657420477002908    8    7    7    2
 0.001406386535535    8    7    7    3
 0.01157964150543866    8    7    7    4
 0.009430495407890378    8    7    7    5
 -0.004709482616084132    8    7    7    6
 0.01167604427568994    8    7    7    7
 -0.008379956083927286    8    7    8    1
 -0.01413341880689699    8    7    8    2
 -0.009726429910477695    8    7    8    3
 0.0229124945485428    8    7    8    4
 -0.007564167200706801    8    7    8    5
 -0.02131708830305034    8    7    8    6
 0.0371003042897588    8    7    8    7
 0.6275951968360394    8    8    1    1
 0.1357320861374263    8    8    2    1
 0.4821218826068863    8    8    2    2
 -0.1571157142825144    8    8    3    1
 0.0461912603356066    8    8    3    2
 0.4618859106492971    8    8    3    3
 0.1254838989090483    8    8    4    1
 0.01642268267063483    8    8    4    2
 -0.09969852640747054    8    8    4    3
 0.6398577652500784    8    8    4    4
 0.1313490549862016    8    8    5    1
 -0.007008528758385435    8    8    5    2
 -0.03902185154916733    8    8    5    3
 -0.08598125352194053    8    8    5    4
 0.4083311587152297    8    8    5    5
 -0.01006607991389704    8    8    6    1
 0.1497503185431635    8    8    6    2
 0.04191854379473221    8    8    6    3
 -0.2171389137170474    8    8    6    4
 0.1177165992940647    8    8    6    5
 0.8295296597852624    8    8    6    6
 -0.00137290890968579    8    8    7    1
 -0.01164025946923262    8    8    7    2
 -0.02442391087791677    8    8    7    3
 0.1843659592383051    8    8    7    4
 0.01614781692818845    8    8    7    5
 -0.1326320467736265    8    8    7    6
 0.4647870416330452    8    8    7    7
 0.1329560822355272    8    8    8    1
 0.2875583455675885    8    8    8    2
 -0.02910571785767173    8    8    8    3
 0.1693495635604611    8    8    8    4
 0.01247685070716348    8    8    8    5
 0.1795166197758808    8    8    8    6
 -0.03685065915755927    8    8    8    7
 0.9453695795180335    8    8    8    8
 0.04659810173488644    9    1    1    1
 0.01513251309807472    9    1    2    1
 0.01987244604120745    9    1    2    2
 -0.02657692604312995    9    1    3    1
 0.004195274043264734    9    1    3    2
 0.03136608442210365    9    1    3    3
 0.03135073801481555    9    1    4    1
 0.004700315989160474    9    1    4    2
 -0.02488798442653785    9    1    4    3
 0.07140036676366679    9    1    4    4
 0.0144675985283876    9    1    5    1
 -0.000533514528226716    9    1    5    2
 -0.001833958560025546    9    1    5    3
 -0.007366445470006296    9    1    5    4
 0.02181387334614382    9    1    5    5
 -0.006322136773168516    9    1    6    1
 0.01264333757240018    9    1    6    2
 0.006063562418661374    9    1    6    3
 -0.03201943191421588    9    1    6    4
 0.01415655848464624    9    1    6    5
 0.08382397686912869    9    1    6    6
 0.009718149527867872    9    1    7    1
 -0.004312802915179991    9    1    7    2
 -0.008991801761341317    9    1    7    3
 0.03316376880990962    9    1    7    4
 0.005620660310767037    9    1    7    5
 -0.02138881482384813    9    1    7    6
 0.02714451510651884    9    1    7    7
 0.01817822665614566    9    1    8    1
 0.03211078302622218    9    1    8    2
 -0.006967512903094723    9    1    8    3
 0.02654215048079414    9    1    8    4
 -0.000935144192471702    9    1    8    5
 0.01545098883177701    9    1    8    6
 0.004097707964801964    9    1    8    7
 0.07584402773842892    9    1    8    8
 0.02759894277877176    9    1    9    1
 0.06184160004825568    9    2    1    1
 0.006148070027362959    9    2    2    1
 0.02539616212155677    9    2    2    2
 -0.0227150887718374    9    2    3    1
 -0.002390239817949957    9    2    3    2
 0.02802574511415775    9    2    3    3
 0.02232141104924448    9    2    4    1
 0.004859769124496548    9    2    4    2
 -0.02680848243432621    9    2    4    3
 0.08361879442852242    9    2    4    4
 0.01906866281027991    9    2    5    1
 0.005940035673153377    9    2    5    2
 -0.007832033009598756    9    2    5    3
 -0.01891903887167073    9    2    5    4
 0.03153838138427698    9    2    5    5